Abinit
ABAQUS
AMBER
ANSYS
CFX
BAMTools
bioperl
mpiBLAST
Bowtie2
CHARMM
CPLEX
CPMD
Cufflinks
Cutadapt
DL_POLY_4
EggLib
Elmer
ESPRESSO
FastQC
fastStructure
FASTX-Toolkit
Gamess
Gaussian
GenomeTools
GROMACS
InterProScan
KmerGenie
LAMMPS
MAKER
MITE-Hunter
Mobyle Workbench
Mr Bayes
mrFAST
NAMD
NCAR
NCBI
NWChem
Oases
Octave
OpenFOAM
Paup
PBJelly
PerlTk
PETSc
PLINK
PSPP
RAxML
RepeatModeler
SAMtools
SAS
SOAPdenovo2
STACKS
Stata
Tophat
TotalView
VariationHunter
VASP
Velvet
Vis5D
VMD
WRF
Wien2K
